# vtk DataFile Version 3.0
#This file was generated by the deal.II library on 2021/1/1 at 20:24:35
ASCII
DATASET UNSTRUCTURED_GRID

POINTS 256 double
0 0 0
0.125 0 0
0 0.125 0
0.125 0.125 0
0.125 0 0
0.25 0 0
0.125 0.125 0
0.25 0.125 0
0 0.125 0
0.125 0.125 0
0 0.25 0
0.125 0.25 0
0.125 0.125 0
0.25 0.125 0
0.125 0.25 0
0.25 0.25 0
0.25 0 0
0.375 0 0
0.25 0.125 0
0.375 0.125 0
0.375 0 0
0.5 0 0
0.375 0.125 0
0.5 0.125 0
0.25 0.125 0
0.375 0.125 0
0.25 0.25 0
0.375 0.25 0
0.375 0.125 0
0.5 0.125 0
0.375 0.25 0
0.5 0.25 0
0 0.25 0
0.125 0.25 0
0 0.375 0
0.125 0.375 0
0.125 0.25 0
0.25 0.25 0
0.125 0.375 0
0.25 0.375 0
0 0.375 0
0.125 0.375 0
0 0.5 0
0.125 0.5 0
0.125 0.375 0
0.25 0.375 0
0.125 0.5 0
0.25 0.5 0
0.25 0.25 0
0.375 0.25 0
0.25 0.375 0
0.375 0.375 0
0.375 0.25 0
0.5 0.25 0
0.375 0.375 0
0.5 0.375 0
0.25 0.375 0
0.375 0.375 0
0.25 0.5 0
0.375 0.5 0
0.375 0.375 0
0.5 0.375 0
0.375 0.5 0
0.5 0.5 0
0.5 0 0
0.625 0 0
0.5 0.125 0
0.625 0.125 0
0.625 0 0
0.75 0 0
0.625 0.125 0
0.75 0.125 0
0.5 0.125 0
0.625 0.125 0
0.5 0.25 0
0.625 0.25 0
0.625 0.125 0
0.75 0.125 0
0.625 0.25 0
0.75 0.25 0
0.75 0 0
0.875 0 0
0.75 0.125 0
0.875 0.125 0
0.875 0 0
1 0 0
0.875 0.125 0
1 0.125 0
0.75 0.125 0
0.875 0.125 0
0.75 0.25 0
0.875 0.25 0
0.875 0.125 0
1 0.125 0
0.875 0.25 0
1 0.25 0
0.5 0.25 0
0.625 0.25 0
0.5 0.375 0
0.625 0.375 0
0.625 0.25 0
0.75 0.25 0
0.625 0.375 0
0.75 0.375 0
0.5 0.375 0
0.625 0.375 0
0.5 0.5 0
0.625 0.5 0
0.625 0.375 0
0.75 0.375 0
0.625 0.5 0
0.75 0.5 0
0.75 0.25 0
0.875 0.25 0
0.75 0.375 0
0.875 0.375 0
0.875 0.25 0
1 0.25 0
0.875 0.375 0
1 0.375 0
0.75 0.375 0
0.875 0.375 0
0.75 0.5 0
0.875 0.5 0
0.875 0.375 0
1 0.375 0
0.875 0.5 0
1 0.5 0
0 0.5 0
0.125 0.5 0
0 0.625 0
0.125 0.625 0
0.125 0.5 0
0.25 0.5 0
0.125 0.625 0
0.25 0.625 0
0 0.625 0
0.125 0.625 0
0 0.75 0
0.125 0.75 0
0.125 0.625 0
0.25 0.625 0
0.125 0.75 0
0.25 0.75 0
0.25 0.5 0
0.375 0.5 0
0.25 0.625 0
0.375 0.625 0
0.375 0.5 0
0.5 0.5 0
0.375 0.625 0
0.5 0.625 0
0.25 0.625 0
0.375 0.625 0
0.25 0.75 0
0.375 0.75 0
0.375 0.625 0
0.5 0.625 0
0.375 0.75 0
0.5 0.75 0
0 0.75 0
0.125 0.75 0
0 0.875 0
0.125 0.875 0
0.125 0.75 0
0.25 0.75 0
0.125 0.875 0
0.25 0.875 0
0 0.875 0
0.125 0.875 0
0 1 0
0.125 1 0
0.125 0.875 0
0.25 0.875 0
0.125 1 0
0.25 1 0
0.25 0.75 0
0.375 0.75 0
0.25 0.875 0
0.375 0.875 0
0.375 0.75 0
0.5 0.75 0
0.375 0.875 0
0.5 0.875 0
0.25 0.875 0
0.375 0.875 0
0.25 1 0
0.375 1 0
0.375 0.875 0
0.5 0.875 0
0.375 1 0
0.5 1 0
0.5 0.5 0
0.625 0.5 0
0.5 0.625 0
0.625 0.625 0
0.625 0.5 0
0.75 0.5 0
0.625 0.625 0
0.75 0.625 0
0.5 0.625 0
0.625 0.625 0
0.5 0.75 0
0.625 0.75 0
0.625 0.625 0
0.75 0.625 0
0.625 0.75 0
0.75 0.75 0
0.75 0.5 0
0.875 0.5 0
0.75 0.625 0
0.875 0.625 0
0.875 0.5 0
1 0.5 0
0.875 0.625 0
1 0.625 0
0.75 0.625 0
0.875 0.625 0
0.75 0.75 0
0.875 0.75 0
0.875 0.625 0
1 0.625 0
0.875 0.75 0
1 0.75 0
0.5 0.75 0
0.625 0.75 0
0.5 0.875 0
0.625 0.875 0
0.625 0.75 0
0.75 0.75 0
0.625 0.875 0
0.75 0.875 0
0.5 0.875 0
0.625 0.875 0
0.5 1 0
0.625 1 0
0.625 0.875 0
0.75 0.875 0
0.625 1 0
0.75 1 0
0.75 0.75 0
0.875 0.75 0
0.75 0.875 0
0.875 0.875 0
0.875 0.75 0
1 0.75 0
0.875 0.875 0
1 0.875 0
0.75 0.875 0
0.875 0.875 0
0.75 1 0
0.875 1 0
0.875 0.875 0
1 0.875 0
0.875 1 0
1 1 0

CELLS 64 320
4	0	1	3	2
4	4	5	7	6
4	8	9	11	10
4	12	13	15	14
4	16	17	19	18
4	20	21	23	22
4	24	25	27	26
4	28	29	31	30
4	32	33	35	34
4	36	37	39	38
4	40	41	43	42
4	44	45	47	46
4	48	49	51	50
4	52	53	55	54
4	56	57	59	58
4	60	61	63	62
4	64	65	67	66
4	68	69	71	70
4	72	73	75	74
4	76	77	79	78
4	80	81	83	82
4	84	85	87	86
4	88	89	91	90
4	92	93	95	94
4	96	97	99	98
4	100	101	103	102
4	104	105	107	106
4	108	109	111	110
4	112	113	115	114
4	116	117	119	118
4	120	121	123	122
4	124	125	127	126
4	128	129	131	130
4	132	133	135	134
4	136	137	139	138
4	140	141	143	142
4	144	145	147	146
4	148	149	151	150
4	152	153	155	154
4	156	157	159	158
4	160	161	163	162
4	164	165	167	166
4	168	169	171	170
4	172	173	175	174
4	176	177	179	178
4	180	181	183	182
4	184	185	187	186
4	188	189	191	190
4	192	193	195	194
4	196	197	199	198
4	200	201	203	202
4	204	205	207	206
4	208	209	211	210
4	212	213	215	214
4	216	217	219	218
4	220	221	223	222
4	224	225	227	226
4	228	229	231	230
4	232	233	235	234
4	236	237	239	238
4	240	241	243	242
4	244	245	247	246
4	248	249	251	250
4	252	253	255	254

CELL_TYPES 64
 9 9 9 9 9 9 9 9 9 9 9 9 9 9 9 9 9 9 9 9 9 9 9 9 9 9 9 9 9 9 9 9 9 9 9 9 9 9 9 9 9 9 9 9 9 9 9 9 9 9 9 9 9 9 9 9 9 9 9 9 9 9 9 9
POINT_DATA 256
VECTORS Velocity_0_0 double
3.16705e-17 0 0
2.79527e-17 0 0
0.197947 0 0
0.174697 0 0
2.79512e-17 0 0
2.42111e-17 0 0
0.174692 0 0
0.151316 0 0
0.197947 0 0
0.174697 0 0
0.365758 0 0
0.322798 0 0
0.174692 0 0
0.151316 0 0
0.322789 0 0
0.279595 0 0
2.4211e-17 0 0
2.04621e-17 0 0
0.151315 0 0
0.127885 0 0
2.04638e-17 0 0
1.66941e-17 0 0
0.127897 0 0
0.104336 0 0
0.151315 0 0
0.127885 0 0
0.279594 0 0
0.236301 0 0
0.127897 0 0
0.104336 0 0
0.236322 0 0
0.192787 0 0
0.365758 0 0
0.322798 0 0
0.477886 0 0
0.421756 0 0
0.322789 0 0
0.279595 0 0
0.421744 0 0
0.365308 0 0
0.477886 0 0
0.421756 0 0
0.51726 0 0
0.456506 0 0
0.421744 0 0
0.365308 0 0
0.456492 0 0
0.395407 0 0
0.279594 0 0
0.236301 0 0
0.365308 0 0
0.308742 0 0
0.236322 0 0
0.192787 0 0
0.30877 0 0
0.251889 0 0
0.365308 0 0
0.308742 0 0
0.395406 0 0
0.33418 0 0
0.30877 0 0
0.251889 0 0
0.33421 0 0
0.272643 0 0
1.66978e-17 0 0
1.28649e-17 0 0
0.104361 0 0
0.0804047 0 0
1.28709e-17 0 0
8.89777e-18 0 0
0.0804469 0 0
0.0556115 0 0
0.104361 0 0
0.0804047 0 0
0.192835 0 0
0.148568 0 0
0.0804469 0 0
0.0556115 0 0
0.148647 0 0
0.102757 0 0
8.9063e-18 0 0
4.677e-18 0 0
0.0556762 0 0
0.029227 0 0
4.68828e-18 0 0
4.45068e-20 0 0
0.0293608 0 0
0.000184642 0 0
0.0556762 0 0
0.029227 0 0
0.102876 0 0
0.0540045 0 0
0.0293608 0 0
0.000184642 0 0
0.0542517 0 0
0.000341174 0 0
0.192835 0 0
0.148568 0 0
0.251951 0 0
0.194114 0 0
0.148647 0 0
0.102757 0 0
0.194216 0 0
0.134258 0 0
0.251951 0 0
0.194114 0 0
0.272709 0 0
0.210108 0 0
0.194216 0 0
0.134258 0 0
0.210218 0 0
0.14532 0 0
0.102876 0 0
0.0540045 0 0
0.134414 0 0
0.0705603 0 0
0.0542517 0 0
0.000341174 0 0
0.0708832 0 0
0.000445765 0 0
0.134414 0 0
0.0705603 0 0
0.145489 0 0
0.0763739 0 0
0.0708832 0 0
0.000445765 0 0
0.0767235 0 0
0.000482492 0 0
0.51726 0 0
0.456506 0 0
0.477886 0 0
0.421756 0 0
0.456492 0 0
0.395407 0 0
0.421744 0 0
0.365308 0 0
0.477886 0 0
0.421756 0 0
0.365758 0 0
0.322798 0 0
0.421744 0 0
0.365308 0 0
0.322789 0 0
0.279595 0 0
0.395406 0 0
0.33418 0 0
0.365308 0 0
0.308742 0 0
0.33421 0 0
0.272643 0 0
0.30877 0 0
0.251889 0 0
0.365308 0 0
0.308742 0 0
0.279594 0 0
0.236301 0 0
0.30877 0 0
0.251889 0 0
0.236322 0 0
0.192787 0 0
0.365758 0 0
0.322798 0 0
0.197947 0 0
0.174697 0 0
0.322789 0 0
0.279595 0 0
0.174692 0 0
0.151316 0 0
0.197947 0 0
0.174697 0 0
3.16705e-17 0 0
2.79527e-17 0 0
0.174692 0 0
0.151316 0 0
2.79512e-17 0 0
2.42111e-17 0 0
0.279594 0 0
0.236301 0 0
0.151315 0 0
0.127885 0 0
0.236322 0 0
0.192787 0 0
0.127897 0 0
0.104336 0 0
0.151315 0 0
0.127885 0 0
2.4211e-17 0 0
2.04621e-17 0 0
0.127897 0 0
0.104336 0 0
2.04638e-17 0 0
1.66941e-17 0 0
0.272709 0 0
0.210108 0 0
0.251951 0 0
0.194114 0 0
0.210218 0 0
0.14532 0 0
0.194216 0 0
0.134258 0 0
0.251951 0 0
0.194114 0 0
0.192835 0 0
0.148568 0 0
0.194216 0 0
0.134258 0 0
0.148647 0 0
0.102757 0 0
0.145489 0 0
0.0763739 0 0
0.134414 0 0
0.0705603 0 0
0.0767235 0 0
0.000482492 0 0
0.0708832 0 0
0.000445765 0 0
0.134414 0 0
0.0705603 0 0
0.102876 0 0
0.0540045 0 0
0.0708832 0 0
0.000445765 0 0
0.0542517 0 0
0.000341174 0 0
0.192835 0 0
0.148568 0 0
0.104361 0 0
0.0804047 0 0
0.148647 0 0
0.102757 0 0
0.0804469 0 0
0.0556115 0 0
0.104361 0 0
0.0804047 0 0
1.66978e-17 0 0
1.28649e-17 0 0
0.0804469 0 0
0.0556115 0 0
1.28709e-17 0 0
8.89777e-18 0 0
0.102876 0 0
0.0540045 0 0
0.0556762 0 0
0.029227 0 0
0.0542517 0 0
0.000341174 0 0
0.0293608 0 0
0.000184642 0 0
0.0556762 0 0
0.029227 0 0
8.9063e-18 0 0
4.677e-18 0 0
0.0293608 0 0
0.000184642 0 0
4.68828e-18 0 0
4.45068e-20 0 0
VECTORS Velocity_0_1 double
3.18133 0 0
3.37494 0 0
2.94156 0 0
3.1206 0 0
3.37494 0 0
3.54433 0 0
3.1206 0 0
3.27722 0 0
2.93678 0 0
3.11549 0 0
2.25396 0 0
2.39117 0 0
3.11549 0 0
3.27185 0 0
2.39117 0 0
2.51118 0 0
3.54433 0 0
3.6894 0 0
3.27722 0 0
3.41135 0 0
3.6894 0 0
3.81006 0 0
3.41135 0 0
3.52292 0 0
3.27185 0 0
3.40576 0 0
2.51118 0 0
2.61396 0 0
3.40576 0 0
3.51715 0 0
2.61396 0 0
2.69945 0 0
2.24512 0 0
2.38173 0 0
1.22322 0 0
1.2977 0 0
2.38173 0 0
2.50126 0 0
1.2977 0 0
1.36284 0 0
1.21167 0 0
1.28537 0 0
0.00625029 0 0
0.0066748 0 0
1.28537 0 0
1.34988 0 0
0.0066748 0 0
0.00701331 0 0
2.50126 0 0
2.60363 0 0
1.36284 0 0
1.41862 0 0
2.60363 0 0
2.68879 0 0
1.41862 0 0
1.46501 0 0
1.34988 0 0
1.40513 0 0
0.00701331 0 0
0.00730063 0 0
1.40513 0 0
1.45108 0 0
0.00730063 0 0
0.0075394 0 0
3.81006 0 0
3.90606 0 0
3.52292 0 0
3.61169 0 0
3.90606 0 0
3.97675 0 0
3.61169 0 0
3.67705 0 0
3.51715 0 0
3.60577 0 0
2.69945 0 0
2.76747 0 0
3.60577 0 0
3.67103 0 0
2.76747 0 0
2.81755 0 0
3.97675 0 0
4.02087 0 0
3.67705 0 0
3.71783 0 0
4.02087 0 0
4.03632 0 0
3.71783 0 0
3.73194 0 0
3.67103 0 0
3.71177 0 0
2.81755 0 0
2.84879 0 0
3.71177 0 0
3.7262 0 0
2.84879 0 0
2.85941 0 0
2.68879 0 0
2.75654 0 0
1.46501 0 0
1.50193 0 0
2.75654 0 0
2.80643 0 0
1.50193 0 0
1.5291 0 0
1.45108 0 0
1.48764 0 0
0.0075394 0 0
0.00772912 0 0
1.48764 0 0
1.51457 0 0
0.00772912 0 0
0.0078659 0 0
2.80643 0 0
2.83759 0 0
1.5291 0 0
1.54604 0 0
2.83759 0 0
2.84881 0 0
1.54604 0 0
1.55156 0 0
1.51457 0 0
1.53141 0 0
0.0078659 0 0
0.00791578 0 0
1.53141 0 0
1.53771 0 0
0.00791578 0 0
0.00749466 0 0
-0.00625029 0 0
-0.0066748 0 0
-1.21167 0 0
-1.28537 0 0
-0.0066748 0 0
-0.00701331 0 0
-1.28537 0 0
-1.34988 0 0
-1.22322 0 0
-1.2977 0 0
-2.24512 0 0
-2.38173 0 0
-1.2977 0 0
-1.36284 0 0
-2.38173 0 0
-2.50126 0 0
-0.00701331 0 0
-0.00730063 0 0
-1.34988 0 0
-1.40513 0 0
-0.00730063 0 0
-0.0075394 0 0
-1.40513 0 0
-1.45108 0 0
-1.36284 0 0
-1.41862 0 0
-2.50126 0 0
-2.60363 0 0
-1.41862 0 0
-1.46501 0 0
-2.60363 0 0
-2.68879 0 0
-2.25396 0 0
-2.39117 0 0
-2.93678 0 0
-3.11549 0 0
-2.39117 0 0
-2.51118 0 0
-3.11549 0 0
-3.27185 0 0
-2.94156 0 0
-3.1206 0 0
-3.18133 0 0
-3.37494 0 0
-3.1206 0 0
-3.27722 0 0
-3.37494 0 0
-3.54433 0 0
-2.51118 0 0
-2.61396 0 0
-3.27185 0 0
-3.40576 0 0
-2.61396 0 0
-2.69945 0 0
-3.40576 0 0
-3.51715 0 0
-3.27722 0 0
-3.41135 0 0
-3.54433 0 0
-3.6894 0 0
-3.41135 0 0
-3.52292 0 0
-3.6894 0 0
-3.81006 0 0
-0.0075394 0 0
-0.00772912 0 0
-1.45108 0 0
-1.48764 0 0
-0.00772912 0 0
-0.0078659 0 0
-1.48764 0 0
-1.51457 0 0
-1.46501 0 0
-1.50193 0 0
-2.68879 0 0
-2.75654 0 0
-1.50193 0 0
-1.5291 0 0
-2.75654 0 0
-2.80643 0 0
-0.0078659 0 0
-0.00791578 0 0
-1.51457 0 0
-1.53141 0 0
-0.00791578 0 0
-0.00749466 0 0
-1.53141 0 0
-1.53771 0 0
-1.5291 0 0
-1.54604 0 0
-2.80643 0 0
-2.83759 0 0
-1.54604 0 0
-1.55156 0 0
-2.83759 0 0
-2.84881 0 0
-2.69945 0 0
-2.76747 0 0
-3.51715 0 0
-3.60577 0 0
-2.76747 0 0
-2.81755 0 0
-3.60577 0 0
-3.67103 0 0
-3.52292 0 0
-3.61169 0 0
-3.81006 0 0
-3.90606 0 0
-3.61169 0 0
-3.67705 0 0
-3.90606 0 0
-3.97675 0 0
-2.81755 0 0
-2.84879 0 0
-3.67103 0 0
-3.71177 0 0
-2.84879 0 0
-2.85941 0 0
-3.71177 0 0
-3.7262 0 0
-3.67705 0 0
-3.71783 0 0
-3.97675 0 0
-4.02087 0 0
-3.71783 0 0
-3.73194 0 0
-4.02087 0 0
-4.03632 0 0
VECTORS Velocity_1_0 double
-5.77806e-17 0 0
-5.6591e-17 0 0
-0.361153 0 0
-0.353668 0 0
-5.65977e-17 0 0
-5.38455e-17 0 0
-0.353742 0 0
-0.336513 0 0
-0.361153 0 0
-0.353668 0 0
-0.667324 0 0
-0.653494 0 0
-0.353742 0 0
-0.336513 0 0
-0.65363 0 0
-0.621796 0 0
-5.38513e-17 0 0
-4.94363e-17 0 0
-0.336575 0 0
-0.308956 0 0
-4.94411e-17 0 0
-4.32775e-17 0 0
-0.309011 0 0
-0.270464 0 0
-0.336575 0 0
-0.308956 0 0
-0.621909 0 0
-0.570876 0 0
-0.309011 0 0
-0.270464 0 0
-0.570977 0 0
-0.499753 0 0
-0.667324 0 0
-0.653494 0 0
-0.871901 0 0
-0.853831 0 0
-0.65363 0 0
-0.621796 0 0
-0.854008 0 0
-0.812415 0 0
-0.871901 0 0
-0.853831 0 0
-0.943738 0 0
-0.92418 0 0
-0.854008 0 0
-0.812415 0 0
-0.924372 0 0
-0.879352 0 0
-0.621909 0 0
-0.570876 0 0
-0.812563 0 0
-0.745885 0 0
-0.570977 0 0
-0.499753 0 0
-0.746018 0 0
-0.652958 0 0
-0.812563 0 0
-0.745885 0 0
-0.879512 0 0
-0.80734 0 0
-0.746018 0 0
-0.652958 0 0
-0.807484 0 0
-0.706757 0 0
-4.32811e-17 0 0
-3.53013e-17 0 0
-0.270512 0 0
-0.220615 0 0
-3.53033e-17 0 0
-2.54619e-17 0 0
-0.220653 0 0
-0.159123 0 0
-0.270512 0 0
-0.220615 0 0
-0.499841 0 0
-0.407643 0 0
-0.220653 0 0
-0.159123 0 0
-0.407714 0 0
-0.29402 0 0
-2.54621e-17 0 0
-1.3741e-17 0 0
-0.15915 0 0
-0.0858683 0 0
-1.37389e-17 0 0
-1.53128e-19 0 0
-0.0859045 0 0
-0.000904753 0 0
-0.15915 0 0
-0.0858683 0 0
-0.294071 0 0
-0.158664 0 0
-0.0859045 0 0
-0.000904753 0 0
-0.158731 0 0
-0.00167177 0 0
-0.499841 0 0
-0.407643 0 0
-0.653073 0 0
-0.532612 0 0
-0.407714 0 0
-0.29402 0 0
-0.532704 0 0
-0.384156 0 0
-0.653073 0 0
-0.532612 0 0
-0.706881 0 0
-0.576495 0 0
-0.532704 0 0
-0.384156 0 0
-0.576594 0 0
-0.415807 0 0
-0.294071 0 0
-0.158664 0 0
-0.384222 0 0
-0.207304 0 0
-0.158731 0 0
-0.00167177 0 0
-0.207392 0 0
-0.00218427 0 0
-0.384222 0 0
-0.207304 0 0
-0.415879 0 0
-0.224385 0 0
-0.207392 0 0
-0.00218427 0 0
-0.224479 0 0
-0.00236423 0 0
-0.943738 0 0
-0.92418 0 0
-0.871901 0 0
-0.853831 0 0
-0.924372 0 0
-0.879352 0 0
-0.854008 0 0
-0.812415 0 0
-0.871901 0 0
-0.853831 0 0
-0.667324 0 0
-0.653494 0 0
-0.854008 0 0
-0.812415 0 0
-0.65363 0 0
-0.621796 0 0
-0.879512 0 0
-0.80734 0 0
-0.812563 0 0
-0.745885 0 0
-0.807484 0 0
-0.706757 0 0
-0.746018 0 0
-0.652958 0 0
-0.812563 0 0
-0.745885 0 0
-0.621909 0 0
-0.570876 0 0
-0.746018 0 0
-0.652958 0 0
-0.570977 0 0
-0.499753 0 0
-0.667324 0 0
-0.653494 0 0
-0.361153 0 0
-0.353668 0 0
-0.65363 0 0
-0.621796 0 0
-0.353742 0 0
-0.336513 0 0
-0.361153 0 0
-0.353668 0 0
-5.77806e-17 0 0
-5.6591e-17 0 0
-0.353742 0 0
-0.336513 0 0
-5.65977e-17 0 0
-5.38455e-17 0 0
-0.621909 0 0
-0.570876 0 0
-0.336575 0 0
-0.308956 0 0
-0.570977 0 0
-0.499753 0 0
-0.309011 0 0
-0.270464 0 0
-0.336575 0 0
-0.308956 0 0
-5.38513e-17 0 0
-4.94363e-17 0 0
-0.309011 0 0
-0.270464 0 0
-4.94411e-17 0 0
-4.32775e-17 0 0
-0.706881 0 0
-0.576495 0 0
-0.653073 0 0
-0.532612 0 0
-0.576594 0 0
-0.415807 0 0
-0.532704 0 0
-0.384156 0 0
-0.653073 0 0
-0.532612 0 0
-0.499841 0 0
-0.407643 0 0
-0.532704 0 0
-0.384156 0 0
-0.407714 0 0
-0.29402 0 0
-0.415879 0 0
-0.224385 0 0
-0.384222 0 0
-0.207304 0 0
-0.224479 0 0
-0.00236423 0 0
-0.207392 0 0
-0.00218427 0 0
-0.384222 0 0
-0.207304 0 0
-0.294071 0 0
-0.158664 0 0
-0.207392 0 0
-0.00218427 0 0
-0.158731 0 0
-0.00167177 0 0
-0.499841 0 0
-0.407643 0 0
-0.270512 0 0
-0.220615 0 0
-0.407714 0 0
-0.29402 0 0
-0.220653 0 0
-0.159123 0 0
-0.270512 0 0
-0.220615 0 0
-4.32811e-17 0 0
-3.53013e-17 0 0
-0.220653 0 0
-0.159123 0 0
-3.53033e-17 0 0
-2.54619e-17 0 0
-0.294071 0 0
-0.158664 0 0
-0.15915 0 0
-0.0858683 0 0
-0.158731 0 0
-0.00167177 0 0
-0.0859045 0 0
-0.000904753 0 0
-0.15915 0 0
-0.0858683 0 0
-2.54621e-17 0 0
-1.3741e-17 0 0
-0.0859045 0 0
-0.000904753 0 0
-1.37389e-17 0 0
-1.53128e-19 0 0
VECTORS Velocity_1_1 double
3.64882e-05 0 0
-0.371354 0 0
6.5114e-05 0 0
-0.343365 0 0
-0.371354 0 0
-0.729995 0 0
-0.343365 0 0
-0.67498 0 0
2.30745e-06 0 0
-0.342808 0 0
8.38268e-05 0 0
-0.263102 0 0
-0.342808 0 0
-0.673875 0 0
-0.263102 0 0
-0.517205 0 0
-0.729995 0 0
-1.0654 0 0
-0.67498 0 0
-0.985107 0 0
-1.0654 0 0
-1.36648 0 0
-0.985107 0 0
-1.2635 0 0
-0.673875 0 0
-0.983493 0 0
-0.517205 0 0
-0.754841 0 0
-0.983493 0 0
-1.26143 0 0
-0.754841 0 0
-0.96816 0 0
-3.22246e-05 0 0
-0.262072 0 0
8.97777e-05 0 0
-0.142784 0 0
-0.262072 0 0
-0.515163 0 0
-0.142784 0 0
-0.280691 0 0
-6.18508e-05 0 0
-0.141438 0 0
8.20607e-05 0 0
-0.000728268 0 0
-0.141438 0 0
-0.278023 0 0
-0.000728268 0 0
-0.001444 0 0
-0.515163 0 0
-0.75186 0 0
-0.280691 0 0
-0.409658 0 0
-0.75186 0 0
-0.964336 0 0
-0.409658 0 0
-0.525428 0 0
-0.278023 0 0
-0.405763 0 0
-0.001444 0 0
-0.00210819 0 0
-0.405763 0 0
-0.520432 0 0
-0.00210819 0 0
-0.00270401 0 0
-1.36648 0 0
-1.62166 0 0
-1.2635 0 0
-1.49945 0 0
-1.62166 0 0
-1.81898 0 0
-1.49945 0 0
-1.6819 0 0
-1.26143 0 0
-1.49699 0 0
-0.96816 0 0
-1.14896 0 0
-1.49699 0 0
-1.67915 0 0
-1.14896 0 0
-1.28876 0 0
-1.81898 0 0
-1.94629 0 0
-1.6819 0 0
-1.79961 0 0
-1.94629 0 0
-1.99144 0 0
-1.79961 0 0
-1.84127 0 0
-1.67915 0 0
-1.79667 0 0
-1.28876 0 0
-1.37895 0 0
-1.79667 0 0
-1.83844 0 0
-1.37895 0 0
-1.41078 0 0
-0.964336 0 0
-1.14442 0 0
-0.525428 0 0
-0.623547 0 0
-1.14442 0 0
-1.28367 0 0
-0.623547 0 0
-0.699419 0 0
-0.520432 0 0
-0.617618 0 0
-0.00270401 0 0
-0.00320884 0 0
-0.617618 0 0
-0.692771 0 0
-0.00320884 0 0
-0.00359778 0 0
-1.28367 0 0
-1.37353 0 0
-0.699419 0 0
-0.748354 0 0
-1.37353 0 0
-1.40555 0 0
-0.748354 0 0
-0.765508 0 0
-0.692771 0 0
-0.741275 0 0
-0.00359778 0 0
-0.00383124 0 0
-0.741275 0 0
-0.758676 0 0
-0.00383124 0 0
-0.00369772 0 0
-8.20607e-05 0 0
0.000728268 0 0
6.18508e-05 0 0
0.141438 0 0
0.000728268 0 0
0.001444 0 0
0.141438 0 0
0.278023 0 0
-8.97777e-05 0 0
0.142784 0 0
3.22246e-05 0 0
0.262072 0 0
0.142784 0 0
0.280691 0 0
0.262072 0 0
0.515163 0 0
0.001444 0 0
0.00210819 0 0
0.278023 0 0
0.405763 0 0
0.00210819 0 0
0.00270401 0 0
0.405763 0 0
0.520432 0 0
0.280691 0 0
0.409658 0 0
0.515163 0 0
0.75186 0 0
0.409658 0 0
0.525428 0 0
0.75186 0 0
0.964336 0 0
-8.38268e-05 0 0
0.263102 0 0
-2.30745e-06 0 0
0.342808 0 0
0.263102 0 0
0.517205 0 0
0.342808 0 0
0.673875 0 0
-6.5114e-05 0 0
0.343365 0 0
-3.64882e-05 0 0
0.371354 0 0
0.343365 0 0
0.67498 0 0
0.371354 0 0
0.729995 0 0
0.517205 0 0
0.754841 0 0
0.673875 0 0
0.983493 0 0
0.754841 0 0
0.96816 0 0
0.983493 0 0
1.26143 0 0
0.67498 0 0
0.985107 0 0
0.729995 0 0
1.0654 0 0
0.985107 0 0
1.2635 0 0
1.0654 0 0
1.36648 0 0
0.00270401 0 0
0.00320884 0 0
0.520432 0 0
0.617618 0 0
0.00320884 0 0
0.00359778 0 0
0.617618 0 0
0.692771 0 0
0.525428 0 0
0.623547 0 0
0.964336 0 0
1.14442 0 0
0.623547 0 0
0.699419 0 0
1.14442 0 0
1.28367 0 0
0.00359778 0 0
0.00383124 0 0
0.692771 0 0
0.741275 0 0
0.00383124 0 0
0.00369772 0 0
0.741275 0 0
0.758676 0 0
0.699419 0 0
0.748354 0 0
1.28367 0 0
1.37353 0 0
0.748354 0 0
0.765508 0 0
1.37353 0 0
1.40555 0 0
0.96816 0 0
1.14896 0 0
1.26143 0 0
1.49699 0 0
1.14896 0 0
1.28876 0 0
1.49699 0 0
1.67915 0 0
1.2635 0 0
1.49945 0 0
1.36648 0 0
1.62166 0 0
1.49945 0 0
1.6819 0 0
1.62166 0 0
1.81898 0 0
1.28876 0 0
1.37895 0 0
1.67915 0 0
1.79667 0 0
1.37895 0 0
1.41078 0 0
1.79667 0 0
1.83844 0 0
1.6819 0 0
1.79961 0 0
1.81898 0 0
1.94629 0 0
1.79961 0 0
1.84127 0 0
1.94629 0 0
1.99144 0 0
SCALARS solution_0 double 1
LOOKUP_TABLE default
6.12323e-17 6.49588e-17 0.382681 0.405971 6.49588e-17 6.82189e-17 0.405971 0.426347 0.382681 0.405971 0.707102 0.750137 0.405971 0.426347 0.750137 0.787786 6.82189e-17 7.1011e-17 0.426347 0.443797 7.1011e-17 7.33334e-17 0.443797 0.458311 0.426347 0.443797 0.787786 0.820029 0.443797 0.458311 0.820029 0.846849 0.707102 0.750137 0.923874 0.980101 0.750137 0.787786 0.980101 1.02929 0.923874 0.980101 0.999994 1.06085 0.980101 1.02929 1.06085 1.1141 0.787786 0.820029 1.02929 1.07142 0.820029 0.846849 1.07142 1.10646 1.02929 1.07142 1.1141 1.1597 1.07142 1.10646 1.1597 1.19763 7.33334e-17 7.5181e-17 0.458311 0.469859 7.5181e-17 7.65416e-17 0.469859 0.478363 0.458311 0.469859 0.846849 0.868187 0.469859 0.478363 0.868187 0.883899 7.65416e-17 7.73905e-17 0.478363 0.483669 7.73905e-17 7.76863e-17 0.483669 0.485516 0.478363 0.483669 0.883899 0.893704 0.483669 0.485516 0.893704 0.897116 0.846849 0.868187 1.10646 1.13434 0.868187 0.883899 1.13434 1.15487 1.10646 1.13434 1.19763 1.2278 1.13434 1.15487 1.2278 1.25002 0.883899 0.893704 1.15487 1.16768 0.893704 0.897116 1.16768 1.17214 1.15487 1.16768 1.25002 1.26389 1.16768 1.17214 1.26389 1.26871 0.999994 1.06085 0.923874 0.980101 1.06085 1.1141 0.980101 1.02929 0.923874 0.980101 0.707102 0.750137 0.980101 1.02929 0.750137 0.787786 1.1141 1.1597 1.02929 1.07142 1.1597 1.19763 1.07142 1.10646 1.02929 1.07142 0.787786 0.820029 1.07142 1.10646 0.820029 0.846849 0.707102 0.750137 0.382681 0.405971 0.750137 0.787786 0.405971 0.426347 0.382681 0.405971 6.12323e-17 6.49588e-17 0.405971 0.426347 6.49588e-17 6.82189e-17 0.787786 0.820029 0.426347 0.443797 0.820029 0.846849 0.443797 0.458311 0.426347 0.443797 6.82189e-17 7.1011e-17 0.443797 0.458311 7.1011e-17 7.33334e-17 1.19763 1.2278 1.10646 1.13434 1.2278 1.25002 1.13434 1.15487 1.10646 1.13434 0.846849 0.868187 1.13434 1.15487 0.868187 0.883899 1.25002 1.26389 1.15487 1.16768 1.26389 1.26871 1.16768 1.17214 1.15487 1.16768 0.883899 0.893704 1.16768 1.17214 0.893704 0.897116 0.846849 0.868187 0.458311 0.469859 0.868187 0.883899 0.469859 0.478363 0.458311 0.469859 7.33334e-17 7.5181e-17 0.469859 0.478363 7.5181e-17 7.65416e-17 0.883899 0.893704 0.478363 0.483669 0.893704 0.897116 0.483669 0.485516 0.478363 0.483669 7.65416e-17 7.73905e-17 0.483669 0.485516 7.73905e-17 7.76863e-17 
SCALARS solution_1 double 1
LOOKUP_TABLE default
0 -7.14823e-18 6.35014e-06 -0.04467 -7.14823e-18 -1.40509e-17 -0.04467 -0.0878109 6.35014e-06 -0.04467 1.17335e-05 -0.0825394 -0.04467 -0.0878109 -0.0825394 -0.162253 -1.40509e-17 -2.05064e-17 -0.0878109 -0.128157 -2.05064e-17 -2.63013e-17 -0.128157 -0.164374 -0.0878109 -0.128157 -0.162253 -0.236803 -0.128157 -0.164374 -0.236803 -0.303723 1.17335e-05 -0.0825394 1.53306e-05 -0.107843 -0.0825394 -0.162253 -0.107843 -0.211994 1.53306e-05 -0.107843 1.65937e-05 -0.116728 -0.107843 -0.211994 -0.116728 -0.229461 -0.162253 -0.236803 -0.211994 -0.309397 -0.236803 -0.303723 -0.309397 -0.396833 -0.211994 -0.309397 -0.229461 -0.334889 -0.309397 -0.396833 -0.334889 -0.429529 -2.63013e-17 -3.12127e-17 -0.164374 -0.195069 -3.12127e-17 -3.50105e-17 -0.195069 -0.218805 -0.164374 -0.195069 -0.303723 -0.360441 -0.195069 -0.218805 -0.360441 -0.404299 -3.50105e-17 -3.74607e-17 -0.218805 -0.234119 -3.74607e-17 -3.8329e-17 -0.234119 -0.239544 -0.218805 -0.234119 -0.404299 -0.432595 -0.234119 -0.239544 -0.432595 -0.44262 -0.303723 -0.360441 -0.396833 -0.470939 -0.360441 -0.404299 -0.470939 -0.528242 -0.396833 -0.470939 -0.429529 -0.50974 -0.470939 -0.528242 -0.50974 -0.571765 -0.404299 -0.432595 -0.528242 -0.565213 -0.432595 -0.44262 -0.565213 -0.578311 -0.528242 -0.565213 -0.571765 -0.611782 -0.565213 -0.578311 -0.611782 -0.62596 1.65937e-05 -0.116728 1.53306e-05 -0.107843 -0.116728 -0.229461 -0.107843 -0.211994 1.53306e-05 -0.107843 1.17335e-05 -0.0825394 -0.107843 -0.211994 -0.0825394 -0.162253 -0.229461 -0.334889 -0.211994 -0.309397 -0.334889 -0.429529 -0.309397 -0.396833 -0.211994 -0.309397 -0.162253 -0.236803 -0.309397 -0.396833 -0.236803 -0.303723 1.17335e-05 -0.0825394 6.35014e-06 -0.04467 -0.0825394 -0.162253 -0.04467 -0.0878109 6.35014e-06 -0.04467 0 -7.14823e-18 -0.04467 -0.0878109 -7.14823e-18 -1.40509e-17 -0.162253 -0.236803 -0.0878109 -0.128157 -0.236803 -0.303723 -0.128157 -0.164374 -0.0878109 -0.128157 -1.40509e-17 -2.05064e-17 -0.128157 -0.164374 -2.05064e-17 -2.63013e-17 -0.429529 -0.50974 -0.396833 -0.470939 -0.50974 -0.571765 -0.470939 -0.528242 -0.396833 -0.470939 -0.303723 -0.360441 -0.470939 -0.528242 -0.360441 -0.404299 -0.571765 -0.611782 -0.528242 -0.565213 -0.611782 -0.62596 -0.565213 -0.578311 -0.528242 -0.565213 -0.404299 -0.432595 -0.565213 -0.578311 -0.432595 -0.44262 -0.303723 -0.360441 -0.164374 -0.195069 -0.360441 -0.404299 -0.195069 -0.218805 -0.164374 -0.195069 -2.63013e-17 -3.12127e-17 -0.195069 -0.218805 -3.12127e-17 -3.50105e-17 -0.404299 -0.432595 -0.218805 -0.234119 -0.432595 -0.44262 -0.234119 -0.239544 -0.218805 -0.234119 -3.50105e-17 -3.74607e-17 -0.234119 -0.239544 -3.74607e-17 -3.8329e-17 
