# vtk DataFile Version 3.0
#This file was generated by the deal.II library on 2021/2/23 at 8:43:45
ASCII
DATASET UNSTRUCTURED_GRID

POINTS 64 double
0 0 0
0.166667 0 0
0.333333 0 0
0.5 0 0
0 0.166667 0
0.166667 0.166667 0
0.333333 0.166667 0
0.5 0.166667 0
0 0.333333 0
0.166667 0.333333 0
0.333333 0.333333 0
0.5 0.333333 0
0 0.5 0
0.166667 0.5 0
0.333333 0.5 0
0.5 0.5 0
0.5 0 0
0.666667 0 0
0.833333 0 0
1 0 0
0.5 0.166667 0
0.666667 0.166667 0
0.833333 0.166667 0
1 0.166667 0
0.5 0.333333 0
0.666667 0.333333 0
0.833333 0.333333 0
1 0.333333 0
0.5 0.5 0
0.666667 0.5 0
0.833333 0.5 0
1 0.5 0
0 0.5 0
0.166667 0.5 0
0.333333 0.5 0
0.5 0.5 0
0 0.666667 0
0.166667 0.666667 0
0.333333 0.666667 0
0.5 0.666667 0
0 0.833333 0
0.166667 0.833333 0
0.333333 0.833333 0
0.5 0.833333 0
0 1 0
0.166667 1 0
0.333333 1 0
0.5 1 0
0.5 0.5 0
0.666667 0.5 0
0.833333 0.5 0
1 0.5 0
0.5 0.666667 0
0.666667 0.666667 0
0.833333 0.666667 0
1 0.666667 0
0.5 0.833333 0
0.666667 0.833333 0
0.833333 0.833333 0
1 0.833333 0
0.5 1 0
0.666667 1 0
0.833333 1 0
1 1 0

CELLS 36 180
4	0	1	5	4
4	1	2	6	5
4	2	3	7	6
4	4	5	9	8
4	5	6	10	9
4	6	7	11	10
4	8	9	13	12
4	9	10	14	13
4	10	11	15	14
4	16	17	21	20
4	17	18	22	21
4	18	19	23	22
4	20	21	25	24
4	21	22	26	25
4	22	23	27	26
4	24	25	29	28
4	25	26	30	29
4	26	27	31	30
4	32	33	37	36
4	33	34	38	37
4	34	35	39	38
4	36	37	41	40
4	37	38	42	41
4	38	39	43	42
4	40	41	45	44
4	41	42	46	45
4	42	43	47	46
4	48	49	53	52
4	49	50	54	53
4	50	51	55	54
4	52	53	57	56
4	53	54	58	57
4	54	55	59	58
4	56	57	61	60
4	57	58	62	61
4	58	59	63	62

CELL_TYPES 36
 9 9 9 9 9 9 9 9 9 9 9 9 9 9 9 9 9 9 9 9 9 9 9 9 9 9 9 9 9 9 9 9 9 9 9 9
POINT_DATA 64
SCALARS u_direction_1 double 1
LOOKUP_TABLE default
1 0.666667 0.333333 1.81443e-16 1 0.666667 0.333333 -1.21648e-16 1 0.666667 0.333333 -1.30055e-16 1 0.666667 0.333333 1.56223e-16 1.81443e-16 -0.333333 -0.666667 -1 -1.21648e-16 -0.333333 -0.666667 -1 -1.30055e-16 -0.333333 -0.666667 -1 1.56223e-16 -0.333333 -0.666667 -1 1 0.666667 0.333333 5.52947e-16 1 0.666667 0.333333 -3.082e-16 1 0.666667 0.333333 -2.50376e-16 1 0.666667 0.333333 7.26422e-16 5.52947e-16 -0.333333 -0.666667 -1 -3.082e-16 -0.333333 -0.666667 -1 -2.50376e-16 -0.333333 -0.666667 -1 7.26422e-16 -0.333333 -0.666667 -1 
SCALARS u_direction_2 double 1
LOOKUP_TABLE default
1 1 1 1 0.666667 0.666667 0.666667 0.666667 0.333333 0.333333 0.333333 0.333333 -2.84166e-15 -5.83967e-16 2.45394e-16 -3.53578e-16 1 1 1 1 0.666667 0.666667 0.666667 0.666667 0.333333 0.333333 0.333333 0.333333 2.48922e-16 -1.81093e-16 -6.16273e-16 -1.05662e-15 -2.84166e-15 -5.83967e-16 2.45394e-16 -3.53578e-16 -0.333333 -0.333333 -0.333333 -0.333333 -0.666667 -0.666667 -0.666667 -0.666667 -1 -1 -1 -1 2.48922e-16 -1.81093e-16 -6.16273e-16 -1.05662e-15 -0.333333 -0.333333 -0.333333 -0.333333 -0.666667 -0.666667 -0.666667 -0.666667 -1 -1 -1 -1 
SCALARS p double 1
LOOKUP_TABLE default
0.5 0.361111 0.277778 0.25 0.361111 0.222222 0.138889 0.111111 0.277778 0.138889 0.0555556 0.0277778 0.25 0.111111 0.0277778 7.20963e-16 0.25 0.277778 0.361111 0.5 0.111111 0.138889 0.222222 0.361111 0.0277778 0.0555556 0.138889 0.277778 5.55542e-16 0.0277778 0.111111 0.25 0.25 0.111111 0.0277778 5.57725e-16 0.277778 0.138889 0.0555556 0.0277778 0.361111 0.222222 0.138889 0.111111 0.5 0.361111 0.277778 0.25 4.0837e-16 0.0277778 0.111111 0.25 0.0277778 0.0555556 0.138889 0.277778 0.111111 0.138889 0.222222 0.361111 0.25 0.277778 0.361111 0.5 
