# vtk DataFile Version 3.0
#This file was generated by the deal.II library on 2021/2/24 at 18:44:31
ASCII
DATASET UNSTRUCTURED_GRID

POINTS 32 double
0 0 0
0.0375 0 0
0.0375 0 0
0.15 0 0
0.15 0 0
0.2125 0 0
0.2125 0 0
0.225 0 0
0.225 0 0
0.2875 0 0
0.2875 0 0
0.35 0 0
0.35 0 0
0.4125 0 0
0.4125 0 0
0.525 0 0
0.525 0 0
0.5875 0 0
0.5875 0 0
0.65 0 0
0.65 0 0
0.6625 0 0
0.6625 0 0
0.775 0 0
0.775 0 0
0.7875 0 0
0.7875 0 0
0.9 0 0
0.9 0 0
0.9625 0 0
0.9625 0 0
1 0 0

CELLS 16 48
2	0	1
2	2	3
2	4	5
2	6	7
2	8	9
2	10	11
2	12	13
2	14	15
2	16	17
2	18	19
2	20	21
2	22	23
2	24	25
2	26	27
2	28	29
2	30	31

CELL_TYPES 16
 3 3 3 3 3 3 3 3 3 3 3 3 3 3 3 3
POINT_DATA 32
SCALARS solution double 1
LOOKUP_TABLE default
0.778801 0.807424 0.807424 0.884706 0.884706 0.920668 0.920668 0.927164 0.927164 0.955848 0.955848 0.977751 0.977751 0.992373 0.992373 0.999375 0.999375 0.992373 0.992373 0.977751 0.977751 0.973939 0.973939 0.927164 0.927164 0.920668 0.920668 0.852144 0.852144 0.807424 0.807424 0.778801 
