# vtk DataFile Version 3.0
#This file was generated by the deal.II library on 2021/2/25 at 10:39:16
ASCII
DATASET UNSTRUCTURED_GRID

POINTS 4 double
0 0 0
0.7 0 0
0.7 0 0
1 0 0

CELLS 2 6
2	0	1
2	2	3

CELL_TYPES 2
 3 3
POINT_DATA 4
SCALARS solution double 1
LOOKUP_TABLE default
0.25 0.04 0.04 0.25 
